LAMMPS (24 Jul 2017)
variable	rc equal 10.0
variable	skin equal 1.0
variable	seed equal 6384
variable	temp equal 300.0

units		real
atom_style	full

bond_style	harmonic
angle_style	harmonic

#variable	style_1 string "hybrid/softcore lj/cut/coul/dsf/softcore 0 10"
#variable	coeff_1 string "lj/cut/coul/dsf/softcore"
#variable	style_2 string "lj/cut/coul/dsf 0 10"
#variable	coeff_2 string "lj/cut/coul/dsf"

#variable	style_1 string "hybrid/softcore lj/cut/coul/dsf 0 10"
#variable	coeff_1 string "lj/cut/coul/dsf 1"
#variable	style_2 string "lj/cut/coul/dsf 0 10"
#variable	coeff_2 string "lj/cut/coul/dsf 2"

variable	style_1 string "lj/cut/coul/dsf/softcore 0 10"
variable	coeff_1 string ""
variable	style_2 string ""
variable	coeff_2 string ""

#variable	style_1 string "hybrid lj/cut/coul/dsf 0 10"
#variable	coeff_1 string "lj/cut/coul/dsf 1"
#variable	style_2 string "lj/cut/coul/dsf 0 10"
#variable	coeff_2 string "lj/cut/coul/dsf 2"

pair_style	${style_1} ${style_2}
pair_style	lj/cut/coul/dsf/softcore 0 10 ${style_2}
pair_style	lj/cut/coul/dsf/softcore 0 10 
read_data	water_co2.lmp
  orthogonal box = (-11.0257 -11.0257 -11.0257) to (11.0257 11.0257 11.0257)
  1 by 1 by 1 MPI processor grid
  reading atoms ...
  1071 atoms
  scanning bonds ...
  2 = max bonds/atom
  scanning angles ...
  1 = max angles/atom
  reading bonds ...
  714 bonds
  reading angles ...
  357 angles
  2 = max # of 1-2 neighbors
  1 = max # of 1-3 neighbors
  1 = max # of 1-4 neighbors
  2 = max # of special neighbors

pair_coeff	1 1 ${coeff_2} 0.0000 0.0000 # w_HW w_HW
pair_coeff	1 1  0.0000 0.0000 
pair_coeff	1 2 ${coeff_2} 0.0000000000000000 1.5753500000000000 # w_HW w_OW
pair_coeff	1 2  0.0000000000000000 1.5753500000000000 
pair_coeff	1 3 ${coeff_1} 0.0000000000000000 1.3999999999999999 # w_HW s_C_co2
pair_coeff	1 3  0.0000000000000000 1.3999999999999999 
pair_coeff	1 4 ${coeff_1} 0.0000000000000000 1.5249999999999999 # w_HW s_O_co2
pair_coeff	1 4  0.0000000000000000 1.5249999999999999 
pair_coeff	2 2 ${coeff_2} 0.1520 3.1507 # w_OW w_OW
pair_coeff	2 2  0.1520 3.1507 
pair_coeff	2 3 ${coeff_1} 9.0307727390295897E-002 2.9753499999999997 # w_OW s_C_co2
pair_coeff	2 3  9.0307727390295897E-002 2.9753499999999997 
pair_coeff	2 4 ${coeff_1} 0.15447442128973973 3.1003499999999997 # w_OW s_O_co2
pair_coeff	2 4  0.15447442128973973 3.1003499999999997 
pair_coeff	3 3 ${coeff_2} 0.0536545107 2.8 # s_C_co2 s_C_co2
pair_coeff	3 3  0.0536545107 2.8 
pair_coeff	3 4 ${coeff_2} 9.1777854780312737E-002 2.9249999999999998 # s_C_co2 s_O_co2
pair_coeff	3 4  9.1777854780312737E-002 2.9249999999999998 
pair_coeff	4 4 ${coeff_2} 0.1569891239 3.05 # s_O_co2 s_O_co2
pair_coeff	4 4  0.1569891239 3.05 

timestep 	1

neighbor	${skin} bin
neighbor	1 bin
neigh_modify	delay 0 every 1 check yes

delete_bonds    all bond 1
Neighbor list info ...
  update every 1 steps, delay 0 steps, check yes
  max neighbors/atom: 2000, page size: 100000
  master list distance cutoff = 11
  ghost atom cutoff = 11
  binsize = 5.5, bins = 5 5 5
  1 neighbor lists, perpetual/occasional/extra = 1 0 0
  (1) pair lj/cut/coul/dsf/softcore, perpetual
      attributes: half, newton on
      pair build: half/bin/newton
      stencil: half/bin/3d/newton
      bin: standard
  714 total bonds, 2 turned on, 712 turned off
  357 total angles, 357 turned on, 0 turned off
  0 total dihedrals, 0 turned on, 0 turned off
  0 total impropers, 0 turned on, 0 turned off
delete_bonds    all angle 1
  714 total bonds, 2 turned on, 712 turned off
  357 total angles, 1 turned on, 356 turned off
  0 total dihedrals, 0 turned on, 0 turned off
  0 total impropers, 0 turned on, 0 turned off
delete_bonds    all bond 2
  714 total bonds, 0 turned on, 714 turned off
  357 total angles, 1 turned on, 356 turned off
  0 total dihedrals, 0 turned on, 0 turned off
  0 total impropers, 0 turned on, 0 turned off
delete_bonds    all angle 2
  714 total bonds, 0 turned on, 714 turned off
  357 total angles, 0 turned on, 357 turned off
  0 total dihedrals, 0 turned on, 0 turned off
  0 total impropers, 0 turned on, 0 turned off

#pair_modify     pair lj/cut/coul/dsf/softcore alpha 0.5 n 1 p 1 lambda 1.0
#pair_modify     pair lj/cut/coul/dsf/softcore set_grid 5 0.0 0.1 0.4 0.5 1.0

fix		1 all rigid/nvt/small molecule temp 300 300 100
357 rigid bodies with 1071 atoms
  1.16 = max distance from body owner to body atom
#compute         E all softcore/grid

thermo		1

compute		eatom all pe/atom
compute		pe all reduce sum c_eatom

compute		vatom all stress/atom thermo_temp virial
compute		p all reduce sum c_vatom[1] c_vatom[2] c_vatom[3]
variable	press equal -(c_p[1]+c_p[2]+c_p[3])/(3*vol)
compute         press all pressure thermo_temp virial
variable	delta_e equal round(10000*(c_pe-c_thermo_pe))
variable	delta_p equal round(10000*(c_press-v_press))

thermo_style	custom step temp pe ecoul evdwl #c_E[*] # c_pe v_delta_e c_press v_press v_delta_p

run		0
Per MPI rank memory allocation (min/avg/max) = 16.86 | 16.86 | 16.86 Mbytes
Step Temp PotEng E_coul E_vdwl 
       0            0    609.69094   -388.28549    997.97643 
Loop time of 1.19209e-06 on 1 procs for 0 steps with 1071 atoms

0.0% CPU use with 1 MPI tasks x no OpenMP threads

MPI task timing breakdown:
Section |  min time  |  avg time  |  max time  |%varavg| %total
---------------------------------------------------------------
Pair    | 0          | 0          | 0          |   0.0 |  0.00
Bond    | 0          | 0          | 0          |   0.0 |  0.00
Neigh   | 0          | 0          | 0          |   0.0 |  0.00
Comm    | 0          | 0          | 0          |   0.0 |  0.00
Output  | 0          | 0          | 0          |   0.0 |  0.00
Modify  | 0          | 0          | 0          |   0.0 |  0.00
Other   |            | 1.192e-06  |            |       |100.00

Nlocal:    1071 ave 1071 max 1071 min
Histogram: 1 0 0 0 0 0 0 0 0 0
Nghost:    7461 ave 7461 max 7461 min
Histogram: 1 0 0 0 0 0 0 0 0 0
Neighs:    297995 ave 297995 max 297995 min
Histogram: 1 0 0 0 0 0 0 0 0 0

Total # of neighbors = 297995
Ave neighs/atom = 278.24
Ave special neighs/atom = 2
Neighbor list builds = 0
Dangerous builds = 0
Total wall time: 0:00:01
